VARIABLES = "Freier Parameter", "Zielfunktion"
ZONE T="High Fidelity"
-1.0 1.0
0.0 0.0
1.0 1.0

ZONE T="Low Fidelity"
-1.0 1.1
-0.75 0.4
-0.5  0.29
0.0 -0.1
0.5 0.26
0.75 0.65
1.0 0.9
